# vtk DataFile Version 3.0
Example VTK
ASCII
DATASET UNSTRUCTURED_GRID
POINTS  1589 float
 -0.402624261220E+02 -0.170092829629E+02  0.121500752653E-25
 -0.330945181242E+02 -0.235106830704E+02  0.352221613468E-25
 -0.261467622719E+02 -0.274227062810E+02  0.406062775610E-25
 -0.193144116251E+02 -0.298351356918E+02  0.438503042128E-25
 -0.125142574123E+02 -0.309895420500E+02  0.451510635052E-25
 -0.572295380534E+01 -0.309934739792E+02  0.447958545162E-25
  0.111361685769E+01 -0.298189319294E+02  0.351882534292E-25
  0.546254009700E+01 -0.275511841942E+02  0.228216950644E-25
  0.971613000000E+01 -0.247938000000E+02  0.141326501208E-25
 -0.407011378225E+02 -0.136027468424E+02  0.129683866186E-01
 -0.335521970481E+02 -0.188007631824E+02  0.000000000000E+00
 -0.268136605664E+02 -0.219390993040E+02  0.000000000000E+00
 -0.201562308442E+02 -0.238735066880E+02  0.000000000000E+00
 -0.135487379210E+02 -0.248009834053E+02  0.000000000000E+00
 -0.694892950176E+01 -0.247802058292E+02  0.000000000000E+00
 -0.307147242490E+00 -0.238460662109E+02  0.000000000000E+00
  0.418273959983E+01 -0.224068083577E+02  0.000000000000E+00
  0.901840046947E+01 -0.206652529196E+02  0.000000000000E+00
 -0.411327941666E+02 -0.102129408112E+02  0.178784148648E-01
 -0.340859957182E+02 -0.140778529145E+02  0.000000000000E+00
 -0.274135388915E+02 -0.164526722306E+02  0.000000000000E+00
 -0.208571900476E+02 -0.179185133461E+02  0.000000000000E+00
 -0.143440644535E+02 -0.186064279232E+02  0.000000000000E+00
 -0.782443492890E+01 -0.185608340078E+02  0.000000000000E+00
 -0.124880008379E+01 -0.177693974937E+02  0.000000000000E+00
  0.361650725880E+01 -0.171462962520E+02  0.000000000000E+00
  0.871233150279E+01 -0.163937215138E+02  0.000000000000E+00
 -0.415398033902E+02 -0.684462859852E+01  0.205683239695E-01
 -0.345685850350E+02 -0.939867596056E+01  0.000000000000E+00
 -0.279245372291E+02 -0.110007256062E+02  0.000000000000E+00
 -0.213859024301E+02 -0.119950136354E+02  0.000000000000E+00
 -0.148673359465E+02 -0.124517101109E+02  0.000000000000E+00
 -0.828405399681E+01 -0.123832220081E+02  0.000000000000E+00
 -0.154702877743E+01 -0.117569568458E+02  0.000000000000E+00
  0.369033265226E+01 -0.119261862421E+02  0.000000000000E+00
  0.920077668573E+01 -0.121042337719E+02  0.000000000000E+00
 -0.418685873780E+02 -0.349518957192E+01  0.191698145326E-01
 -0.349543566138E+02 -0.477237264657E+01  0.000000000000E+00
 -0.282951590396E+02 -0.559863977116E+01  0.000000000000E+00
 -0.217325372447E+02 -0.611955575108E+01  0.000000000000E+00
 -0.151540626241E+02 -0.635938251846E+01  0.000000000000E+00
 -0.842504750093E+01 -0.631265983846E+01  0.000000000000E+00
 -0.137575568835E+01 -0.593003260964E+01  0.000000000000E+00
  0.438472876876E+01 -0.693168913713E+01  0.000000000000E+00
  0.103764950856E+02 -0.797037669747E+01  0.000000000000E+00
 -0.420122487441E+02 -0.154531256556E+00  0.162063560175E-01
 -0.351342832775E+02 -0.193672343098E+00  0.000000000000E+00
 -0.284670912140E+02 -0.233030991906E+00  0.000000000000E+00
 -0.219004131004E+02 -0.274254963306E+00  0.000000000000E+00
 -0.153030000012E+02 -0.313975793331E+00  0.000000000000E+00
 -0.850216943579E+01 -0.323699338390E+00  0.000000000000E+00
 -0.127471035341E+01 -0.310642688057E+00  0.000000000000E+00
  0.544695547071E+01 -0.242073858872E+01  0.000000000000E+00
  0.126667000000E+02 -0.428227000000E+01  0.442701881404E-25
 -0.419061509536E+02  0.318774478809E+01  0.199801256864E-01
 -0.350216784492E+02  0.439040659368E+01  0.000000000000E+00
 -0.284125811205E+02  0.514547120006E+01  0.000000000000E+00
 -0.219222067455E+02  0.559182816372E+01  0.000000000000E+00
 -0.154467057619E+02  0.576899571835E+01  0.000000000000E+00
 -0.886230711564E+01  0.570207491505E+01  0.000000000000E+00
 -0.203946354827E+01  0.546535874496E+01  0.000000000000E+00
  0.366855545412E+01  0.346306887826E+01  0.000000000000E+00
  0.976790445917E+01  0.189467696223E+01  0.000000000000E+00
 -0.416085543143E+02  0.653566285664E+01  0.218245185072E-01
 -0.346875291400E+02  0.903382479430E+01  0.000000000000E+00
 -0.281220394052E+02  0.105807327492E+02  0.000000000000E+00
 -0.216874329627E+02  0.115220095162E+02  0.000000000000E+00
 -0.153000754970E+02  0.119396755180E+02  0.000000000000E+00
 -0.887192610900E+01  0.118823158440E+02  0.000000000000E+00
 -0.226193611334E+01  0.114061941731E+02  0.000000000000E+00
  0.253307133346E+01  0.948257932901E+01  0.000000000000E+00
  0.776175804863E+01  0.777581783557E+01  0.000000000000E+00
 -0.412296056013E+02  0.990536838423E+01  0.193163264555E-01
 -0.342416159321E+02  0.137351527393E+02  0.000000000000E+00
 -0.276500744019E+02  0.160758497617E+02  0.000000000000E+00
 -0.211903358318E+02  0.175099077181E+02  0.000000000000E+00
 -0.147826794200E+02  0.181780105874E+02  0.000000000000E+00
 -0.834992341135E+01  0.181433552143E+02  0.000000000000E+00
 -0.177854284725E+01  0.174336682094E+02  0.000000000000E+00
  0.234694492246E+01  0.154619750282E+02  0.000000000000E+00
  0.678949852666E+01  0.135889120154E+02  0.000000000000E+00
 -0.408241484625E+02  0.132950676266E+02  0.143490562743E-01
 -0.337313847508E+02  0.184807672288E+02  0.000000000000E+00
 -0.270550133442E+02  0.216031807510E+02  0.000000000000E+00
 -0.204602288672E+02  0.235212073702E+02  0.000000000000E+00
 -0.139088465766E+02  0.244334180376E+02  0.000000000000E+00
 -0.733249929847E+01  0.244011500015E+02  0.000000000000E+00
 -0.607856140911E+00  0.234410995163E+02  0.000000000000E+00
  0.301690487882E+01  0.213477084772E+02  0.000000000000E+00
  0.705874058979E+01  0.191065534548E+02  0.000000000000E+00
 -0.404109199769E+02  0.167030156266E+02  0.121138356017E-25
 -0.332945482023E+02  0.232048916278E+02  0.353298410299E-25
 -0.263740804671E+02  0.271145346727E+02  0.407751563628E-25
 -0.195615988683E+02  0.295192694856E+02  0.439852335192E-25
 -0.127805634042E+02  0.306561059818E+02  0.451319148591E-25
 -0.600431320502E+01  0.306269211715E+02  0.443095811887E-25
  0.822308921712E+00  0.293850203797E+02  0.318515375901E-25
  0.413384139389E+01  0.272180099543E+02  0.195018841653E-25
  0.742127000000E+01  0.247938000000E+02  0.128258294371E-25
 -0.402669279830E+02 -0.168002539032E+02  0.284358551692E+01
 -0.330994200283E+02 -0.232171172166E+02  0.390001228822E+01
 -0.261483861960E+02 -0.270765403778E+02  0.451279008742E+01
 -0.193133307112E+02 -0.294576483431E+02  0.489880265288E+01
 -0.125094033847E+02 -0.305985383753E+02  0.509183212108E+01
 -0.571392514777E+01 -0.306058056612E+02  0.511302143114E+01
  0.112864078314E+01 -0.294503474762E+02  0.496187306140E+01
  0.550009487445E+01 -0.272475804139E+02  0.439214363904E+01
  0.974472000000E+01 -0.245951000000E+02  0.257295000000E+01
 -0.406768471736E+02 -0.135128436922E+02  0.316014608599E+01
 -0.335268233152E+02 -0.186738035810E+02  0.434624995054E+01
 -0.267731115340E+02 -0.217832238830E+02  0.504485426408E+01
 -0.200980485252E+02 -0.237021008940E+02  0.548768762674E+01
 -0.134693649253E+02 -0.246215041834E+02  0.571781773306E+01
 -0.684138871021E+01 -0.246027055766E+02  0.576285396603E+01
 -0.159327899497E+00 -0.236735137410E+02  0.560943475137E+01
  0.435738850793E+01 -0.222777053054E+02  0.498941777753E+01
  0.915275937076E+01 -0.206112892324E+02  0.305706069085E+01
 -0.410766076733E+02 -0.101926075301E+02  0.340496405060E+01
 -0.340261166518E+02 -0.140512046185E+02  0.468180502424E+01
 -0.273383419227E+02 -0.164116621766E+02  0.544616307551E+01
 -0.207605163113E+02 -0.178693150258E+02  0.593877025618E+01
 -0.142178304129E+02 -0.185543138766E+02  0.619655707232E+01
 -0.765644853735E+01 -0.185116697577E+02  0.625966396327E+01
 -0.102208037751E+01 -0.177262213128E+02  0.608927785224E+01
  0.387052994383E+01 -0.171353555653E+02  0.544105724168E+01
  0.890551089194E+01 -0.164212348094E+02  0.342286606984E+01
 -0.414446273068E+02 -0.685464513532E+01  0.356664773507E+01
 -0.344740996684E+02 -0.941615654879E+01  0.490256703652E+01
 -0.278215638859E+02 -0.110110541606E+02  0.571383531792E+01
 -0.212652840387E+02 -0.120013693709E+02  0.623472181595E+01
 -0.147207656044E+02 -0.124582521506E+02  0.650674096936E+01
 -0.810094049305E+01 -0.123957573918E+02  0.656600471872E+01
 -0.131404115933E+01 -0.117792591230E+02  0.639704132015E+01
  0.395103338713E+01 -0.119753312825E+02  0.570844349995E+01
  0.939751542618E+01 -0.121578306065E+02  0.356431366846E+01
 -0.417437747884E+02 -0.350427926925E+01  0.364334138486E+01
 -0.348290819275E+02 -0.479209411905E+01  0.500013537643E+01
 -0.281704323394E+02 -0.561491708730E+01  0.583650901477E+01
 -0.215988029761E+02 -0.613349389995E+01  0.637031684993E+01
 -0.150050745294E+02 -0.637472376134E+01  0.664183150796E+01
 -0.825878761950E+01 -0.633454161813E+01  0.667691592228E+01
 -0.119413158577E+01 -0.596219204625E+01  0.649363845753E+01
  0.458328098065E+01 -0.698480805175E+01  0.578967998355E+01
  0.105260496368E+02 -0.801140972250E+01  0.348225146224E+01
 -0.418945531105E+02 -0.154245329878E+00  0.363547430433E+01
 -0.349954165720E+02 -0.192400901931E+00  0.497887031013E+01
 -0.283345856885E+02 -0.230249279342E+00  0.581738562771E+01
 -0.217634264210E+02 -0.270716543336E+00  0.635101794145E+01
 -0.151574651402E+02 -0.310730526755E+00  0.661504626225E+01
 -0.835449693892E+01 -0.324152141256E+00  0.663564238697E+01
 -0.114453594351E+01 -0.313044113120E+00  0.638182374893E+01
  0.552085327374E+01 -0.241889125652E+01  0.551055271613E+01
  0.126667000000E+02 -0.428227000000E+01  0.316667000000E+01
 -0.417799683687E+02  0.319692379675E+01  0.364326909766E+01
 -0.348947548896E+02  0.441299386606E+01  0.500233988876E+01
 -0.282850658303E+02  0.516728543060E+01  0.584055932160E+01
 -0.217839926487E+02  0.561302952874E+01  0.637768186047E+01
 -0.152916296950E+02  0.579061782982E+01  0.665321869731E+01
 -0.868916061591E+01  0.572548156221E+01  0.670545711021E+01
[...]
POINT_DATA      1589
VECTORS Velocities float 
     0.00000000     0.00000000     0.00000000
     0.00000000     0.00000000     0.00000000
     0.00000000     0.00000000     0.00000000
     0.00000000     0.00000000     0.00000000
     0.00000000     0.00000000     0.00000000
     0.00000000     0.00000000     0.00000000
     0.00000000     0.00000000     0.00000000
     0.00000000     0.00000000     0.00000000
     0.00000000     0.00000000     0.00000000
     0.00000000     0.00000000     0.00000000
    40.70789489    -2.61606744     0.00000000
    56.73003507   -30.71427500     0.00000000
    29.02070832    19.52643183     0.00000000
    31.77968826   -23.44743145     0.00000000
    -6.77373595    20.73891477     0.00000000
  -148.94455463    10.33548773     0.00000000
  -267.05942361    58.41746177     0.00000000
  -442.93404271    35.18853601     0.00000000
     0.00000000     0.00000000     0.00000000
    31.38529576   -26.25820220     0.00000000
   -29.44941309    21.41668468     0.00000000
    13.39954216   -21.45051066     0.00000000
    -2.47697038    22.32207625     0.00000000
     7.19933755   -30.17214408     0.00000000
  -110.18149782   141.48440998     0.00000000
  -135.89661752   180.87448177     0.00000000
   189.65520516   214.85031711     0.00000000
     0.00000000     0.00000000     0.00000000
   -64.18426358    -9.83873927     0.00000000
   -13.22825931    -4.51778512     0.00000000
   -14.73873624    11.44020649     0.00000000
    -7.44193604   -28.48519768     0.00000000
   -10.94793718    12.78748790     0.00000000
   -65.32895905   107.09928845     0.00000000
    66.98049857   161.49890501     0.00000000
   122.73284552   168.76030587     0.00000000
     0.00000000     0.00000000     0.00000000
   -10.86930733   -24.34583065     0.00000000
   -66.66371260    16.92120500     0.00000000
     8.13924142   -20.30077670     0.00000000
   -31.40998164    17.58445755     0.00000000
    -8.21816191   -49.14406362     0.00000000
    65.96872692    88.20069479     0.00000000
    64.17342621    53.01020786     0.00000000
   324.09901706   116.27752801     0.00000000
     0.00000000     0.00000000     0.00000000
  -122.25463334    -5.00128776     0.00000000
   -51.63070736    -0.94434450     0.00000000
   -65.19840198   -13.06146170     0.00000000
     6.81090065   -18.07962192     0.00000000
   -34.36725207     7.44776554     0.00000000
    -8.57807924   -66.20125718     0.00000000
    75.52326031    75.30708195     0.00000000
     0.00000000     0.00000000     0.00000000
     0.00000000     0.00000000     0.00000000
   -11.74600314    20.48232409     0.00000000
   -75.33869895   -37.99206775     0.00000000
    34.50245731    13.47080717     0.00000000
   -83.41553074   -46.91664752     0.00000000
    64.95734047    -9.68956510     0.00000000
    -8.67686212   -19.48734785     0.00000000
    71.96065323  -134.77799081     0.00000000
   199.17935920    42.41745174     0.00000000
     0.00000000     0.00000000     0.00000000
   -31.92651314     6.98864164     0.00000000
   -24.91830396    -2.22198882     0.00000000
   -36.58467501   -28.63223136     0.00000000
    -3.97498536     9.45996601     0.00000000
   -63.93961940   -92.13601279     0.00000000
    60.95223402    21.74711780     0.00000000
    71.61353195  -182.82213091     0.00000000
   -38.29016056   183.32481306     0.00000000
     0.00000000     0.00000000     0.00000000
    -6.47723602     9.85755556     0.00000000
   -29.58144044   -19.82962917     0.00000000
    25.12886834     5.08118900     0.00000000
   -53.81222549   -38.77293601     0.00000000
   -30.00699052    -4.31357283     0.00000000
   -94.80027766  -128.53148568     0.00000000
   -30.09153803    -1.07673446     0.00000000
    59.01034424    65.64491088     0.00000000
     0.00000000     0.00000000     0.00000000
    63.34522101    28.67201320     0.00000000
    49.77606222     1.56653710     0.00000000
    15.25415074    -6.73503316     0.00000000
   -19.01035481     5.03040250     0.00000000
   -95.11324999   -36.57799935     0.00000000
  -191.78944043     2.11375189     0.00000000
  -256.53646023    26.80900813     0.00000000
  -254.30310402   206.44634477     0.00000000
     0.00000000     0.00000000     0.00000000
     0.00000000     0.00000000     0.00000000
     0.00000000     0.00000000     0.00000000
     0.00000000     0.00000000     0.00000000
     0.00000000     0.00000000     0.00000000
     0.00000000     0.00000000     0.00000000
     0.00000000     0.00000000     0.00000000
     0.00000000     0.00000000     0.00000000
     0.00000000     0.00000000     0.00000000
     0.00000000     0.00000000     0.00000000
     0.00000000     0.00000000     0.00000000
     0.00000000     0.00000000     0.00000000
     0.00000000     0.00000000     0.00000000
     0.00000000     0.00000000     0.00000000
     0.00000000     0.00000000     0.00000000
     0.00000000     0.00000000     0.00000000
     0.00000000     0.00000000     0.00000000
     0.00000000     0.00000000     0.00000000
     0.00000000     0.00000000     0.00000000
   -34.20207251     4.28363740   -14.52066121
     3.31275282   -24.44508490     3.01294272
     1.93471491    24.29984110     0.77618488
     3.95226679   -25.87228956    -8.50772190
    21.16691756    19.82634652    27.68255485
   -19.36268838     6.57854636    31.45278351
  -140.53893630    56.16839661   -53.01289487
  -443.30262316    34.12095681   -86.05752364
     0.00000000     0.00000000     0.00000000
    24.94012685   -33.39418282    13.66484552
    -8.18639103    18.05196527    -2.02688258
    -3.30246648   -26.26952848     3.36527121
    11.91217100    32.33008516    -5.47390200
     0.06682701   -56.87152751    24.11511828
    13.30952420    94.49643137    23.72722756
   -89.97471183   136.75375437   -61.52885501
   216.12903102    52.85303763  -153.50591844
     0.00000000     0.00000000     0.00000000
   -31.03091516    -1.21667554    12.47430271
    38.24373572   -12.19766055    -8.07433950
   -25.23859053    14.59333100     0.39069154
    25.88004782   -25.73401365    -0.69567866
   -19.10335993    10.88780929    16.97006548
     2.53485523    10.04730853    35.75089525
   104.13145049   208.64227739   -61.99899988
   -26.04777063   -76.71385089   -50.68244037
     0.00000000     0.00000000     0.00000000
    66.38331921   -30.87242611    26.27622004
   -19.45119414    10.44085669   -13.55710091
    27.87200321   -13.40648745     4.49921204
   -20.79900073     9.54648101    -3.58332978
     2.36732689   -33.46204427    14.70370655
    53.97743947     3.53432094    -4.27560107
    90.87409076    47.27070813    55.31499594
   262.77030952    20.40791249   -57.96964301
     0.00000000     0.00000000     0.00000000
   -63.97894999    -4.09867603    18.58991808
   -11.44829078     1.87449439   -19.80134219
   -52.54722150   -13.97833894    10.01399682
    28.96073432   -11.84473835    -5.72473402
   -34.98971930     0.13336301     5.40330354
   -29.99014168   -54.23374104   -11.55644536
    35.16651580    89.86427535    18.91808892
     0.00000000     0.00000000     0.00000000
     0.00000000     0.00000000     0.00000000
    35.56582389    29.62524963    24.18834869
     1.51830171   -28.35982806   -11.19822587
    14.88363855     8.92914134    -0.04638681
   -26.66836745   -36.33770849     5.48575248
    11.60275373    -5.81106702    10.62771400
    28.68171358   -26.21966989   -37.80422790
    27.63778761   -58.24237703    78.25078638
   148.41154734    71.10270309   -94.90527912
     0.00000000     0.00000000     0.00000000
     0.07844071     5.02254647    11.29010551
    26.53545977     6.72149388    -6.33089529
   -45.79994324   -31.90451593     1.19281860
    29.65710680    14.40415411     7.38562406
   -75.08846286   -77.11538808     5.09117190
    58.15178312   -10.04288738   -29.01436773
    45.12178752  -190.95286254    17.28019326
   -64.78908188   211.85021170   -80.34519182
     0.00000000     0.00000000     0.00000000
   -19.62577348    10.61790072    11.08483709
    -8.18913654   -14.47391452    -2.64736081
    -2.04139872     5.58124172     1.65464068
   -26.53415535   -35.16951509    12.40843148
   -39.16765833     4.21185668    14.57751166
   -59.18773432  -117.62416449   -24.00944994
   -31.59776494   -17.48968903     8.60090597
    34.52502351    98.35220449  -105.12502822
     0.00000000     0.00000000     0.00000000
   -19.35217189    13.54588133   -13.42723847
    -5.87876056    -9.34764574     5.47924087
   -27.30381115    -8.19906041    -3.03429897
   -14.62182670     5.21897169    17.50665264
   -67.02009890   -34.16980076    20.04748994
  -111.82641440    -2.56697388   -11.76091219
  -204.17878686    19.43013580   -20.12634062
  -234.85947845   204.75821001    -5.07622933
     0.00000000     0.00000000     0.00000000
     0.00000000     0.00000000     0.00000000
     0.00000000     0.00000000     0.00000000
     0.00000000     0.00000000     0.00000000
     0.00000000     0.00000000     0.00000000
     0.00000000     0.00000000     0.00000000
     0.00000000     0.00000000     0.00000000
     0.00000000     0.00000000     0.00000000
     0.00000000     0.00000000     0.00000000
     0.00000000     0.00000000     0.00000000
     0.00000000     0.00000000     0.00000000
     0.00000000     0.00000000     0.00000000
     0.00000000     0.00000000     0.00000000
     0.00000000     0.00000000     0.00000000
     0.00000000     0.00000000     0.00000000
     0.00000000     0.00000000     0.00000000
     0.00000000     0.00000000     0.00000000
     0.00000000     0.00000000     0.00000000
     0.00000000     0.00000000     0.00000000
     4.20184105     9.31325677    13.23678455
     6.61820554   -21.76846024     0.02328691
    21.09438797    16.41404730    -4.48907394
    -2.45693004   -14.52133460     5.75920268
    37.29456078    -2.27517381     0.03225308
    74.02431579    20.14258437    40.94898867
   -36.92744867     6.72584852    -4.84501108
  -476.30936345    19.00292213  -105.22642411
     0.00000000     0.00000000     0.00000000
    37.72487428   -23.70467354     9.90214318
   -24.73751826    13.60788829    -6.47492100
    19.23668922   -21.19075995     0.15947345
    -1.07265985    24.56944819    -1.40855221
    19.90431440   -41.44781079     8.51648408
    70.81899697     9.57955189    41.49585916
   -97.06997182   155.12080497   -24.47493985
   149.76768621   -32.21751168  -151.21462107
     0.00000000     0.00000000     0.00000000
   -28.10355271    -3.65501321    11.85676563
    14.99514818   -11.99623512    -0.49846717
    -5.34867709    12.18440905    -0.85572420
     2.47173433   -26.88007545    -0.41594066
    31.78595774    20.33186547    15.11661398
    -4.61686509   -86.71720529    35.21995018
   111.42769386   231.75764522   -55.66210509
  -149.33113363  -211.17203039   -65.01975904
     0.00000000     0.00000000     0.00000000
    34.43430205   -18.74188810    10.47752367
   -20.31331330     7.36011456    -1.43391530
    16.37765046   -11.35616246    -4.64181970
   -10.56029079     4.94264047     1.61482251
    -0.28248178   -29.92751646    27.83130228
    57.49529839   -30.69508559   -46.37107847
    99.98432603    74.61088117   100.64278514
   264.58247193   -26.25062574  -132.62502269
     0.00000000     0.00000000     0.00000000
   -57.00792644    -4.74123003    14.17109199
   -10.50089752     0.22876029    -5.91080396
   -36.38610726   -10.19645889     0.65837502
    16.39005376   -11.07248097     3.42274953
   -13.96819083    -4.23432040     0.91077218
   -54.12977365   -36.01332325   -31.09042781
    26.88863384    38.32652607     4.40533195
     0.00000000     0.00000000     0.00000000
     0.00000000     0.00000000     0.00000000
    31.91614931    17.77481355    12.66856129
   -32.82041899   -24.80969777    -6.15278084
    35.93061384     5.73653450     0.89781578
   -46.50293983   -26.44008906    -1.02161897
    46.46906025    -7.08438915    33.84118122
     3.53103107     2.51253780   -50.89298710
    72.10677191  -121.64219738   112.86024469
   137.55847290    59.41895473  -189.94386456
     0.00000000     0.00000000     0.00000000
    -1.00072201     4.41337877    13.48421929
     4.20071463     7.16556840    -0.27620605
   -25.90921895   -28.11471951     2.96357578
    17.01902125    10.81189292     1.63261827
   -29.05010090   -46.46598596    30.20194493
   -10.43025394   -19.30957698   -39.84494110
   113.15160957  -160.60460137     3.37583602
    11.50443275   166.07559130  -135.37800689
     0.00000000     0.00000000     0.00000000
     0.03658984     7.36442346     8.22648092
   -24.67426617   -14.57610087    -5.83085000
    22.32215409     6.82359959     4.10254252
   -31.18056727   -32.04374370     5.23977359
     7.39738841     8.86777701    43.07939711
  -109.07946669  -100.44538483   -28.34227406
   -67.53743803   -38.79381772   -69.22890383
    49.65871436   101.66764072  -147.78698391
     0.00000000     0.00000000     0.00000000
    20.93705229    11.05121749    18.17961281
     1.77814442    -5.50648160    -5.49927914
    -4.58301652    -9.36690505     6.44499980
    -8.22017207     5.70235408    11.34847221
   -23.04663534   -34.97340817    34.81022771
  -121.93983956    10.77180267    -4.58660619
  -206.99594525    27.54716034    -5.64463779
  -252.12933338   169.13563043     9.57488763
     0.00000000     0.00000000     0.00000000
     0.00000000     0.00000000     0.00000000
     0.00000000     0.00000000     0.00000000
     0.00000000     0.00000000     0.00000000
     0.00000000     0.00000000     0.00000000
     0.00000000     0.00000000     0.00000000
     0.00000000     0.00000000     0.00000000
     0.00000000     0.00000000     0.00000000
     0.00000000     0.00000000     0.00000000
     0.00000000     0.00000000     0.00000000
     0.00000000     0.00000000     0.00000000
     0.00000000     0.00000000     0.00000000
     0.00000000     0.00000000     0.00000000
     0.00000000     0.00000000     0.00000000
     0.00000000     0.00000000     0.00000000
     0.00000000     0.00000000     0.00000000
     0.00000000     0.00000000     0.00000000
     0.00000000     0.00000000     0.00000000
     0.00000000     0.00000000     0.00000000
   -14.42137730     8.28475450     3.89941754
    37.77367780   -25.36023836     9.29210010
     9.37420641    13.04541128    -9.81121202
    22.71530170   -10.71166073     6.14856458
    24.87972455    -2.95974654     8.42007721
    69.08836189    11.40492099   -16.13816107
   137.82275285     2.93561974    78.08083740
  -431.60485524    25.37130298   -99.14866367
     0.00000000     0.00000000     0.00000000
    22.62742165   -24.59140639    12.03722722
     7.73618709     9.71389614    -1.07880252
    -6.75254952   -14.92247218    -4.06118030
    40.61851730    12.79977860     1.86262240
   -40.83202176   -20.21522880     5.46429811
   140.82046537   -22.04346132    -4.14259582
   -59.21828767    42.67201081    88.59051545
    85.20265810   130.22952441  -159.19939636
     0.00000000     0.00000000     0.00000000
   -38.24871561     0.72445203     6.32757354
    25.56453881    -9.64293898     2.97341116
   -10.83244295    15.42026835    -8.37993761
    13.93738474   -35.68896781    10.32547110
    21.82612241    44.02796709    -3.96168613
    20.69725269  -108.48666500    24.29209032
    -2.90810236   295.67480248   -39.20122640
   -65.40975461  -144.65336271  -119.06696048
     0.00000000     0.00000000     0.00000000
    30.38192342   -17.61530001    15.44189356
   -29.32824870     1.22337705    -5.70666038
    24.48334481   -10.95578158     5.49311030
   -17.96707949     6.57496155   -11.80929575
    33.53272222   -36.14689255    41.30827439
    -3.22639820    -4.35829086   -53.78252498
   191.07943485    42.29437832    79.29779089
   192.09921289   -42.89006166    14.14782730
     0.00000000     0.00000000     0.00000000
   -34.99415089    -2.29936189    11.01633456
    19.64671264     2.45446363    -6.11273873
   -27.95689093   -12.52872101    -3.23564477
    33.05128253     0.86765001     4.58993147
   -27.87542229   -22.67652993     3.06541201
   -58.67450152     7.31514373   -50.75174798
   -29.14379621    51.08060674   -75.63467693
     0.00000000     0.00000000     0.00000000
     0.00000000     0.00000000     0.00000000
    -0.49531417    12.91640491    12.17404293
   -15.43576942   -15.54121453     1.81693407
    12.92173537     8.18722844    -5.91944386
    -6.24383576   -25.12506044     8.30512148
    -4.58204921    13.53095487    25.37714467
    63.51579262    -5.92234708   -54.03036734
    47.11694905   -14.88636034   167.30768043
   105.46039330    64.44854179  -219.14196849
     0.00000000     0.00000000     0.00000000
    -8.07056172     1.63028757     5.41741467
    19.49734715     3.53785467     3.80907553
   -30.77359328   -23.06184709    -3.15135859
    33.88432774     3.14031407     2.71950463
   -17.04489035   -14.08987425    29.30920545
    27.61453308     7.19392550   -20.70932624
    38.30523415  -163.75190040   -15.94308106
    39.97108950   201.25235819  -189.18336240
     0.00000000     0.00000000     0.00000000
   -21.08765746     6.48811040     7.24137105
     3.97237106   -11.24618975     1.67510289
    11.06060341     5.24119191    -0.35404390
   -10.01873409   -30.25375195     6.47654402
    15.83636608    31.85150042    30.47868176
    43.23080461   -66.89527682     9.49004790
  -130.89883575   -43.67818091   -45.66540172
   -35.25973167   136.50118564  -157.35639446
     0.00000000     0.00000000     0.00000000
    13.86295434    16.24521070    13.88763211
    31.23000110    -3.67709295     2.23612624
   -15.81102413    -3.38842435     5.28103917
    12.83092470    -1.18358470     3.89701904
     8.94011582   -11.60397100    39.01069823
    -4.07039822   -27.24001737     9.97983685
  -158.28235463     5.68634648    23.33090356
  -291.73143066   133.44645538    15.33263936
     0.00000000     0.00000000     0.00000000
     0.00000000     0.00000000     0.00000000
     0.00000000     0.00000000     0.00000000
     0.00000000     0.00000000     0.00000000
     0.00000000     0.00000000     0.00000000
     0.00000000     0.00000000     0.00000000
     0.00000000     0.00000000     0.00000000
     0.00000000     0.00000000     0.00000000
     0.00000000     0.00000000     0.00000000
     0.00000000     0.00000000     0.00000000
     0.00000000     0.00000000     0.00000000
     0.00000000     0.00000000     0.00000000
     0.00000000     0.00000000     0.00000000
     0.00000000     0.00000000     0.00000000
     0.00000000     0.00000000     0.00000000
     0.00000000     0.00000000     0.00000000
     0.00000000     0.00000000     0.00000000
     0.00000000     0.00000000     0.00000000
     0.00000000     0.00000000     0.00000000
    31.48502243   -11.21445820    23.49954777
    41.28416984   -14.39084924    -2.26851939
    48.39240934    -7.83920374    16.80290809
    -9.83178852     7.65880276   -17.22319800
    73.65991806   -18.11410634    24.52671200
    -5.14911772    28.38829948   -31.61525657
   192.35407882    -1.91455507    27.69424659
  -247.91444987    35.74628313   -11.36684244
     0.00000000     0.00000000     0.00000000
    44.08146607   -33.46741450    20.25214621
    11.70565199    13.23821195    -8.67602863
    11.28066327   -19.34506279    18.20618793
    26.08375221    15.20186860   -26.83867893
     2.37956537   -16.89480390    47.30328876
    76.68132199    -6.21047837   -80.79722406
   111.75822959    54.13463756   129.51954700
   -34.95454493   209.78319211  -109.48783095
     0.00000000     0.00000000     0.00000000